# vtk DataFile Version 2.0
2D scalar data
ASCII

DATASET STRUCTURED_POINTS
DIMENSIONS    20   20    1
ORIGIN   -10.000 -10.000   0.000
SPACING    1.000   1.000   1.000

POINT_DATA     400
SCALARS scalars float
LOOKUP_TABLE default
 0.0 0.0 0.0 0.0 0.0 0.0 0.0 0.0 0.0 0.0 0.0 0.0 0.0 0.0 0.0 0.0 0.0 0.0 0.0 0.0
 0.0 1.5 1.5 1.5 1.5 1.5 1.5 1.5 1.5 0.0 0.0 1.0 1.0 1.0 1.0 1.0 1.0 1.0 1.0 0.0
 0.0 1.5 3.0 3.0 3.0 3.0 3.0 3.0 1.5 0.0 0.0 1.0 2.0 2.0 2.0 2.0 2.0 2.0 1.0 0.0
 0.0 1.5 3.0 4.5 4.5 4.5 4.5 3.0 1.5 0.0 0.0 1.0 2.0 3.0 3.0 3.0 3.0 2.0 1.0 0.0
 0.0 1.5 3.0 4.5 6.0 6.0 4.5 3.0 1.5 0.0 0.0 1.0 2.0 3.0 4.0 4.0 3.0 2.0 1.0 0.0
 0.0 1.5 3.0 4.5 6.0 6.0 4.5 3.0 1.5 0.0 0.0 1.0 2.0 3.0 4.0 4.0 3.0 2.0 1.0 0.0
 0.0 1.5 3.0 4.5 4.5 4.5 4.5 3.0 1.5 0.0 0.0 1.0 2.0 3.0 3.0 3.0 3.0 2.0 1.0 0.0
 0.0 1.5 3.0 3.0 3.0 3.0 3.0 3.0 1.5 0.0 0.0 1.0 2.0 2.0 2.0 2.0 2.0 2.0 1.0 0.0
 0.0 1.5 1.5 1.5 1.5 1.5 1.5 1.5 1.5 0.0 0.0 1.0 1.0 1.0 1.0 1.0 1.0 1.0 1.0 0.0
   -0.000   -0.000   -0.000   -0.000   -0.000   -0.000   -0.000   -0.000   -0.000   -0.000    0.000    0.000    0.000    0.000    0.000    0.000    0.000    0.000    0.000    0.000
   -1.845   -1.793   -1.697   -1.560   -1.384   -1.174   -0.935   -0.673   -0.394   -0.106    0.185    0.471    0.746    1.002    1.234    1.435    1.601    1.728    1.812    1.851
   -3.509   -3.411   -3.229   -2.967   -2.632   -2.232   -1.778   -1.279   -0.750   -0.201    0.352    0.897    1.419    1.907    2.347    2.730    3.046    3.286    3.446    3.521
   -4.830   -4.695   -4.444   -4.083   -3.623   -3.073   -2.447   -1.761   -1.032   -0.277    0.485    1.234    1.953    2.624    3.231    3.758    4.192    4.523    4.743    4.846
   -5.678   -5.519   -5.224   -4.800   -4.259   -3.612   -2.876   -2.070   -1.213   -0.326    0.570    1.451    2.296    3.085    3.798    4.418    4.928    5.318    5.576    5.697
   -5.970   -5.803   -5.493   -5.047   -4.478   -3.798   -3.024   -2.177   -1.275   -0.342    0.599    1.526    2.415    3.244    3.994    4.645    5.182    5.591    5.863    5.990
   -5.678   -5.519   -5.224   -4.800   -4.259   -3.612   -2.876   -2.070   -1.213   -0.326    0.570    1.451    2.296    3.085    3.798    4.418    4.928    5.318    5.576    5.697
   -4.830   -4.695   -4.444   -4.083   -3.623   -3.073   -2.447   -1.761   -1.032   -0.277    0.485    1.234    1.953    2.624    3.231    3.758    4.192    4.523    4.743    4.846
   -3.509   -3.411   -3.229   -2.967   -2.632   -2.232   -1.778   -1.279   -0.750   -0.201    0.352    0.897    1.419    1.907    2.347    2.730    3.046    3.286    3.446    3.521
   -1.845   -1.793   -1.697   -1.560   -1.384   -1.174   -0.935   -0.673   -0.394   -0.106    0.185    0.471    0.746    1.002    1.234    1.435    1.601    1.728    1.812    1.851



